2
Lattice="1.0 0.0 0.0 0.0 1.0 0.0 0.0 0.0 1.0" Properties=species:S:1:pos:R:3:momenta:R:3:forces:R:3 sparse_indices= energy=0.9133510291442271 stress="0.4314439934824156 0.7292230215429331 0.38721540888657746 0.7292230215429331 0.326605318720777 0.25504993852246405 0.38721540888657746 0.25504993852246405 0.3185010782409763" pbc="T T T"
He       0.15713841       0.99710398       0.64092684       0.19861472       0.12959016       0.46411878       0.48801624       0.78256914       0.52750114
He       0.69338569       0.90346464       0.14626089       0.92338744       0.37879257       0.79694737       0.92320467       0.71863087       0.54575622
4
Lattice="1.0 0.0 0.0 0.0 1.0 0.0 0.0 0.0 1.0" Properties=species:S:1:pos:R:3:momenta:R:3:forces:R:3 sparse_indices=2 energy=0.5845339958967781 stress="0.8832643728374101 0.4736589482749042 0.6125575360846077 0.4736589482749042 0.04982809557310608 0.9519383879956919 0.6125575360846077 0.9519383879956919 0.22321884060680475" pbc="T T T"
H        0.98699548       0.27109152       0.82840818       0.39723635       0.69230317       0.71742402       0.97501125       0.69790992       0.42736135
He       0.95542741       0.62792707       0.71255717       0.20846441       0.71391509       0.56988269       0.73802987       0.55611127       0.20978028
H        0.95551793       0.79583919       0.01626457       0.50770084       0.31544704       0.09250715       0.97886919       0.15580748       0.02892780
He       0.34877543       0.15749443       0.15293379       0.64543458       0.63466428       0.15787333       0.67504974       0.30204244       0.41673029
5
Lattice="1.0 0.0 0.0 0.0 1.0 0.0 0.0 0.0 1.0" Properties=species:S:1:pos:R:3:momenta:R:3:forces:R:3 sparse_indices="0 2 4" energy=0.26796364806180983 stress="0.5706389111071576 0.3483258644776196 0.06089244456604703 0.3483258644776196 0.5296282371894802 0.21476826115341807 0.06089244456604703 0.21476826115341807 0.008875719863243536" pbc="T T T"
H        0.35071505       0.73963362       0.02696195       0.50938856       0.68674285       0.31711543       0.21822063       0.99866869       0.23949716
H        0.78288668       0.67299943       0.47254490       0.03722967       0.36556295       0.28723150       0.36477796       0.28274931       0.78633052
H        0.43430905       0.05355055       0.52035306       0.40526494       0.75298417       0.54189491       0.15815742       0.15396677       0.20679348
He       0.50335965       0.87700387       0.47565834       0.59881725       0.71577512       0.87647597       0.44898467       0.56835792       0.32339863
He       0.28826927       0.14879537       0.18758152       0.00333732       0.24138565       0.27410589       0.43239731       0.43696276       0.94641792
