LAMMPS (29 Oct 2020)
# generic lammps input file
units metal
atom_style atomic
dimension  3
boundary   p p p
newton on
read_data tmp.data
Reading data file ...
  triclinic box = (0.0000000 0.0000000 0.0000000) to (1.0000000 1.0000000 1.0000000) with tilt (0.0000000 0.0000000 0.0000000)
  1 by 1 by 1 MPI processor grid
  reading atoms ...
  4 atoms
  read_data CPU = 0.002 seconds

pair_style flare
pair_coeff * * beta.txt
Reading potential file beta.txt with DATE: Wed
ERROR: Descriptor 2.6991197336267883e-12 is not supported
. (../pair_flare.cpp:285)
Last command: pair_coeff * * beta.txt
